 # total energy = -19072.00740695 eV
 
          22  atoms
           2  atom types
 
      0.00000000       5.17600016  xlo xhi
      0.00000000       5.50899976  ylo yhi
      0.00000000       9.26300011  zlo zhi
 
Masses
 
           1   47.86700000    # Ti
           2   15.99900000    # O 
 
Atoms # atomic
 
         1    1        1.74449398       3.52226998       3.22184399
         2    1        3.75255500       2.39508100       5.79312201
         3    1        4.22394298       2.26208399       1.46186099
         4    1        1.35380400       2.52412500       7.75688598
         5    1        1.68154602       0.78330700       1.39648400
         6    1        3.17325303       0.05480398       7.95866899
         7    1        0.66047099       5.22233799       6.50692899
         8    1        4.37286901       5.06461502       3.57068800
         9    2        3.30355102       3.33004798       4.30374100
        10    2        1.02702102       2.14909401       0.34578198
        11    2        5.07641001       3.60170297       6.96115601
        12    2        3.48209098       0.69303302       0.50948799
        13    2        1.44726300       4.99019899       8.19144798
        14    2        4.02822799       0.81393600       5.02827700
        15    2        0.84285601       4.67939901       4.52243498
        16    2        4.99594199       3.87240598       2.24988497
        17    2        4.89620102       1.06660400       7.39462801
        18    2        2.57632198       1.99703302       2.40634999
        19    2        2.49870698       3.48194402       6.75399799
        20    2        0.09726998       1.10300002       2.52223298
        21    2        2.27247597       1.14114899       6.68468598
        22    2        2.63442501       4.91259001       2.53950998
