LAMMPS data file via write_data, version 29 Oct 2020, timestep = 0

18 atoms
2 atom types

0.0 4.5937 xlo xhi
0.0 4.5937 ylo yhi
0.0 8.8761 zlo zhi
0.0 0.0 0.0 xy xz yz

Masses

1 47.867  # Ti
2 16      # O

Atoms # atomic

1 1 0.0 0.0 0.0 0 0 0
2 1 2.2968499999999996 2.2968499999999996 1.4793499999999997 0 0 0
3 1 0.0 0.0 2.9586999999999994 0 0 0
4 1 2.2968499999999996 2.2968499999999996 4.43805 0 0 0
5 1 0.0 0.0 5.917399999999999 0 0 0
6 1 2.2968499999999996 2.2968499999999996 7.396749999999999 0 0 0
7 2 1.400067886 1.400067886 0.0 0 0 0
8 2 3.193632113999999 3.193632113999999 0.0 0 0 0
9 2 0.8967821140000001 3.6969178860000005 1.4793499999999997 0 0 0
10 2 3.6969178860000005 0.8967821140000001 1.4793499999999997 0 0 0
11 2 1.400067886 1.400067886 2.9586999999999994 0 0 0
12 2 3.193632113999999 3.193632113999999 2.9586999999999994 0 0 0
13 2 0.8967821140000001 3.6969178860000005 4.43805 0 0 0
14 2 3.6969178860000005 0.8967821140000001 4.43805 0 0 0
15 2 1.400067886 1.400067886 5.917399999999999 0 0 0
16 2 3.193632113999999 3.193632113999999 5.917399999999999 0 0 0
17 2 0.8967821140000001 3.6969178860000005 7.396749999999999 0 0 0
18 2 3.6969178860000005 0.8967821140000001 7.396749999999999 0 0 0
